LAMMPS data file. CGCMM style. atom_style full generated by VMD/TopoTools v1.7 on Wed Oct 08 18:05:47 +0530 2025
 470 atoms
 460 bonds
 900 angles
 1260 dihedrals
 0 impropers
 2 atom types
 2 bond types
 3 angle types
 3 dihedral types
 0 improper types
 0 20  xlo xhi
 0 20   ylo yhi
 0 20   zlo zhi

# Pair Coeffs
#
# 1  C
# 2  H

# Bond Coeffs
#
# 1  C-C
# 2  C-H

# Angle Coeffs
#
# 1  C-C-C
# 2  C-C-H
# 3  H-C-H

# Dihedral Coeffs
#
# 1  C-C-C-C
# 2  C-C-C-H
# 3  H-C-C-H

 Masses

 1 12.010700 # C
 2 1.007940 # H

 Atoms # full

1	1	1	-0.18	8.348	2.878	5.433	#	C	UNL
2	1	1	-0.18	9.396	2.556	6.514	#	C	UNL
3	1	2	0.09	17.558001	3.933	20.013	#	H	UNL
4	1	2	0.09	17.624001	4.508	18.339001	#	H	UNL
5	1	2	0.09	16.377001	5.123	19.441999	#	H	UNL
6	1	2	0.09	7.623	2.064	5.344	#	H	UNL
7	1	2	0	7.81	3.796	5.68	#	H	UNL
8	1	2	0	8.832	3.014	4.464	#	H	UNL
9	1	1	-0.18	8.738	2.356	7.894	#	C	UNL
10	1	2	0.09	9.938	1.65	6.229	#	H	UNL
11	1	2	0.09	10.122	3.372	6.565	#	H	UNL
12	1	1	-0.18	9.79	2.037	8.977	#	C	UNL
13	1	2	0.09	8.014	1.539	7.838	#	H	UNL
14	1	2	0.09	8.192	3.262	8.172	#	H	UNL
15	1	1	-0.18	9.128	1.828	10.354	#	C	UNL
16	1	2	0.09	10.34	1.134	8.696	#	H	UNL
17	1	2	0.09	10.51	2.857	9.037	#	H	UNL
18	1	1	-0.18	10.178	1.514	11.441	#	C	UNL
19	1	2	0.09	8.575	2.73	10.633	#	H	UNL
20	1	2	0.09	8.41	1.006	10.293	#	H	UNL
21	1	1	-0.18	9.507	1.294	12.815	#	C	UNL
22	1	2	0.09	10.735	0.616	11.159	#	H	UNL
23	1	2	0.09	10.889	2.341	11.499	#	H	UNL
24	1	1	-0.18	10.509	0.884	13.917	#	C	UNL
25	1	2	0.09	8.976	2.2	13.119	#	H	UNL
26	1	2	0.09	8.759	0.503	12.719	#	H	UNL
27	1	1	-0.18	11.473	2.026	14.311	#	C	UNL
28	1	2	0.09	9.941	0.583	14.801	#	H	UNL
29	1	2	0.09	11.08	0.01	13.591	#	H	UNL
30	1	1	-0.18	12.367	1.614	15.499	#	C	UNL
31	1	2	0.09	12.106	2.29	13.461	#	H	UNL
32	1	2	0.09	10.895	2.914	14.583	#	H	UNL
33	1	1	-0.18	13.321	2.758	15.906	#	C	UNL
34	1	2	0.09	11.738	1.345	16.351999	#	H	UNL
35	1	2	0.09	12.951	0.73	15.228	#	H	UNL
36	1	1	-0.18	14.199	2.35	17.108	#	C	UNL
37	1	2	0.09	13.959	3.019	15.059	#	H	UNL
38	1	2	0.09	12.736	3.643	16.167	#	H	UNL
39	1	1	-0.18	15.143	3.497	17.525	#	C	UNL
40	1	2	0.09	13.558	2.08	17.952	#	H	UNL
41	1	2	0.09	14.79	1.469	16.846001	#	H	UNL
42	1	1	-0.18	16.013	3.093	18.733999	#	C	UNL
43	1	2	0.09	15.788	3.764	16.684999	#	H	UNL
44	1	2	0.09	14.552	4.381	17.782	#	H	UNL
45	1	1	-0.18	16.951	4.238	19.156	#	C	UNL
46	1	2	0.09	15.372	2.825	19.577	#	H	UNL
47	1	2	0.09	16.610001	2.213	18.481001	#	H	UNL
48	2	1	-0.18	18.697001	13.963	17.237	#	C	UNL
49	2	1	-0.18	18.805	14.276	15.733	#	C	UNL
50	2	2	0.09	14.429	15.415	0.558	#	H	UNL
51	2	2	0.09	15.195	14.252	1.651	#	H	UNL
52	2	2	0.09	13.465	14.616	1.811	#	H	UNL
53	2	2	0.09	18.768999	14.88	17.827999	#	H	UNL
54	2	2	0	17.743999	13.478	17.461	#	H	UNL
55	2	2	0	19.503	13.292	17.544001	#	H	UNL
56	2	1	-0.18	17.679001	15.223	15.274	#	C	UNL
57	2	2	0.09	19.777	14.733	15.531	#	H	UNL
58	2	2	0.09	18.756001	13.342	15.167	#	H	UNL
59	2	1	-0.18	17.785999	15.533	13.766	#	C	UNL
60	2	2	0.09	17.732	16.156	15.842	#	H	UNL
61	2	2	0.09	16.708	14.765	15.483	#	H	UNL
62	2	1	-0.18	16.664	16.489	13.311	#	C	UNL
63	2	2	0.09	18.759001	15.987	13.555	#	H	UNL
64	2	2	0.09	17.726	14.602	13.197	#	H	UNL
65	2	1	-0.18	16.766001	16.797001	11.802	#	C	UNL
66	2	2	0.09	15.692	16.037001	13.525	#	H	UNL
67	2	2	0.09	16.726999	17.422001	13.878	#	H	UNL
68	2	1	-0.18	15.646	17.764	11.356	#	C	UNL
69	2	2	0.09	17.74	17.243	11.587	#	H	UNL
70	2	2	0.09	16.698	15.862	11.242	#	H	UNL
71	2	1	-0.18	15.761	18.177999	9.872	#	C	UNL
72	2	2	0.09	14.668	17.309999	11.537	#	H	UNL
73	2	2	0.09	15.697	18.667999	11.968	#	H	UNL
74	2	1	-0.18	15.463	17.014	8.897	#	C	UNL
75	2	2	0.09	15.048	18.983999	9.685	#	H	UNL
76	2	2	0.09	16.759001	18.580999	9.677	#	H	UNL
77	2	1	-0.18	15.464	17.502001	7.434	#	C	UNL
78	2	2	0.09	16.214001	16.229	9.014	#	H	UNL
79	2	2	0.09	14.489	16.58	9.135	#	H	UNL
80	2	1	-0.18	15.152	16.347	6.458	#	C	UNL
81	2	2	0.09	14.718	18.291	7.312	#	H	UNL
82	2	2	0.09	16.441	17.931	7.192	#	H	UNL
83	2	1	-0.18	15.133	16.841	4.997	#	C	UNL
84	2	2	0.09	15.905	15.563	6.569	#	H	UNL
85	2	2	0.09	14.181	15.913	6.708	#	H	UNL
86	2	1	-0.18	14.807	15.691	4.021	#	C	UNL
87	2	2	0.09	14.386	17.632	4.89	#	H	UNL
88	2	2	0.09	16.107	17.268999	4.743	#	H	UNL
89	2	1	-0.18	14.777	16.188	2.56	#	C	UNL
90	2	2	0.09	15.556	14.903	4.122	#	H	UNL
91	2	2	0.09	13.836	15.259	4.278	#	H	UNL
92	2	1	-0.18	14.445	15.044	1.586	#	C	UNL
93	2	2	0.09	14.029	16.978001	2.454	#	H	UNL
94	2	2	0.09	15.748	16.615999	2.296	#	H	UNL
95	3	1	-0.18	5.132	9.508	0.968	#	C	UNL
96	3	1	-0.18	5.852	10.282	2.087	#	C	UNL
97	3	2	0.09	16.177	13.134	13.749	#	H	UNL
98	3	2	0.09	14.545	12.484	13.529	#	H	UNL
99	3	2	0.09	15.954	11.551	12.987	#	H	UNL
100	3	2	0.09	5.293	9.99	0	#	H	UNL
101	3	2	0	5.5	8.481	0.911	#	H	UNL
102	3	2	0	4.057	9.477	1.16	#	H	UNL
103	3	1	-0.18	7.373	10.343	1.839	#	C	UNL
104	3	2	0.09	5.446	11.295	2.142	#	H	UNL
105	3	2	0.09	5.653	9.795	3.046	#	H	UNL
106	3	1	-0.18	8.095	11.115	2.963	#	C	UNL
107	3	2	0.09	7.566	10.83	0.88	#	H	UNL
108	3	2	0.09	7.774	9.327	1.78	#	H	UNL
109	3	1	-0.18	9.614	11.183	2.708	#	C	UNL
110	3	2	0.09	7.69	12.129	3.027	#	H	UNL
111	3	2	0.09	7.906	10.624	3.922	#	H	UNL
112	3	1	-0.18	10.34	11.951	3.833	#	C	UNL
113	3	2	0.09	10.018	10.169	2.641	#	H	UNL
114	3	2	0.09	9.801	11.677	1.75	#	H	UNL
115	3	1	-0.18	11.86	12.025	3.564	#	C	UNL
116	3	2	0.09	9.932	12.962	3.905	#	H	UNL
117	3	2	0.09	10.152	11.449	4.785	#	H	UNL
118	3	1	-0.18	12.618	12.865	4.616	#	C	UNL
119	3	2	0.09	12.28	11.017	3.526	#	H	UNL
120	3	2	0.09	12.022	12.477	2.583	#	H	UNL
121	3	1	-0.18	12.662	12.192	6.007	#	C	UNL
122	3	2	0.09	13.642	13.011	4.263	#	H	UNL
123	3	2	0.09	12.163	13.856	4.696	#	H	UNL
124	3	1	-0.18	13.535	13.002	6.988	#	C	UNL
125	3	2	0.09	11.652	12.108	6.413	#	H	UNL
126	3	2	0.09	13.067	11.182	5.911	#	H	UNL
127	3	1	-0.18	13.595	12.326	8.375	#	C	UNL
128	3	2	0.09	14.547	13.093	6.585	#	H	UNL
129	3	2	0.09	13.129	14.012	7.092	#	H	UNL
130	3	1	-0.18	14.485	13.126	9.348	#	C	UNL
131	3	2	0.09	12.586	12.245	8.785	#	H	UNL
132	3	2	0.09	13.991	11.313	8.268	#	H	UNL
133	3	1	-0.18	14.558	12.444	10.73	#	C	UNL
134	3	2	0.09	15.493	13.214	8.932	#	H	UNL
135	3	2	0.09	14.086	14.138	9.461	#	H	UNL
136	3	1	-0.18	15.458	13.24	11.699	#	C	UNL
137	3	2	0.09	13.553	12.362	11.15	#	H	UNL
138	3	2	0.09	14.953	11.431	10.616	#	H	UNL
139	3	1	-0.18	15.537	12.557	13.077	#	C	UNL
140	3	2	0.09	16.464001	13.325	11.283	#	H	UNL
141	3	2	0.09	15.064	14.252	11.821	#	H	UNL
142	4	1	-0.18	13.113	7.758	18.952	#	C	UNL
143	4	1	-0.18	13.287	8.115	17.465	#	C	UNL
144	4	2	0.09	19.229	15.176	4.597	#	H	UNL
145	4	2	0.09	17.958	15.431	5.802	#	H	UNL
146	4	2	0.09	19.663	15.612	6.258	#	H	UNL
147	4	2	0.09	13.355	6.707	19.128	#	H	UNL
148	4	2	0	13.765	8.375	19.575001	#	H	UNL
149	4	2	0	12.079	7.929	19.264	#	H	UNL
150	4	1	-0.18	14.738	7.882	16.997999	#	C	UNL
151	4	2	0.09	12.605	7.506	16.867001	#	H	UNL
152	4	2	0.09	13.014	9.162	17.312	#	H	UNL
153	4	1	-0.18	14.914	8.243	15.508	#	C	UNL
154	4	2	0.09	15.007	6.833	17.152	#	H	UNL
155	4	2	0.09	15.418	8.489	17.601999	#	H	UNL
156	4	1	-0.18	16.363001	7.999	15.041	#	C	UNL
157	4	2	0.09	14.23	7.64	14.903	#	H	UNL
158	4	2	0.09	14.651	9.293	15.354	#	H	UNL
159	4	1	-0.18	16.542999	8.365	13.552	#	C	UNL
160	4	2	0.09	17.047001	8.6	15.648	#	H	UNL
161	4	2	0.09	16.622999	6.948	15.192	#	H	UNL
162	4	1	-0.18	17.993999	8.107	13.088	#	C	UNL
163	4	2	0.09	15.855	7.77	12.946	#	H	UNL
164	4	2	0.09	16.285999	9.417	13.41	#	H	UNL
165	4	1	-0.18	18.202	8.369	11.58	#	C	UNL
166	4	2	0.09	18.686001	8.725	13.667	#	H	UNL
167	4	2	0.09	18.25	7.064	13.293	#	H	UNL
168	4	1	-0.18	18.103001	9.867	11.209	#	C	UNL
169	4	2	0.09	19.193001	8.002	11.302	#	H	UNL
170	4	2	0.09	17.473	7.794	11.001	#	H	UNL
171	4	1	-0.18	18.441999	10.094	9.721	#	C	UNL
172	4	2	0.09	17.094	10.235	11.407	#	H	UNL
173	4	2	0.09	18.794001	10.442	11.831	#	H	UNL
174	4	1	-0.18	18.361	11.59	9.35	#	C	UNL
175	4	2	0.09	19.450001	9.724	9.517	#	H	UNL
176	4	2	0.09	17.747999	9.525	9.097	#	H	UNL
177	4	1	-0.18	18.719999	11.817	7.867	#	C	UNL
178	4	2	0.09	17.35	11.959	9.542	#	H	UNL
179	4	2	0.09	19.047001	12.159	9.982	#	H	UNL
180	4	1	-0.18	18.653	13.314	7.497	#	C	UNL
181	4	2	0.09	19.728001	11.44	7.675	#	H	UNL
182	4	2	0.09	18.030001	11.254	7.233	#	H	UNL
183	4	1	-0.18	19.024	13.542	6.017	#	C	UNL
184	4	2	0.09	17.645	13.691	7.683	#	H	UNL
185	4	2	0.09	19.34	13.878	8.135	#	H	UNL
186	4	1	-0.18	18.964001	15.035	5.648	#	C	UNL
187	4	2	0.09	20.032	13.166	5.827	#	H	UNL
188	4	2	0.09	18.337	12.985	5.375	#	H	UNL
189	5	1	-0.18	1.11	11.414	14.612	#	C	UNL
190	5	1	-0.18	1.728	12.305	13.519	#	C	UNL
191	5	2	0.09	8.875	16.139	-0.081	#	H	UNL
192	5	2	0.09	9.296	15.738	1.591	#	H	UNL
193	5	2	0.09	8.68	14.479	0.504	#	H	UNL
194	5	2	0.09	0.039	11.612	14.711	#	H	UNL
195	5	2	0	1.248	10.357	14.371	#	H	UNL
196	5	2	0	1.585	11.611	15.575	#	H	UNL
197	5	1	-0.18	1.071	12.048	12.147	#	C	UNL
198	5	2	0.09	1.602	13.354	13.797	#	H	UNL
199	5	2	0.09	2.801	12.107	13.458	#	H	UNL
200	5	1	-0.18	1.694	12.939	11.051	#	C	UNL
201	5	2	0.09	-0.001	12.248	12.213	#	H	UNL
202	5	2	0.09	1.195	10.996	11.875	#	H	UNL
203	5	1	-0.18	1.03	12.687	9.683	#	C	UNL
204	5	2	0.09	1.576	13.991	11.326	#	H	UNL
205	5	2	0.09	2.766	12.734	10.981	#	H	UNL
206	5	1	-0.18	1.654	13.572	8.583	#	C	UNL
207	5	2	0.09	1.145	11.634	9.41	#	H	UNL
208	5	2	0.09	-0.041	12.894	9.754	#	H	UNL
209	5	1	-0.18	0.975	13.323	7.218	#	C	UNL
210	5	2	0.09	1.545	14.625	8.859	#	H	UNL
211	5	2	0.09	2.722	13.356	8.515	#	H	UNL
212	5	1	-0.18	1.502	14.255	6.103	#	C	UNL
213	5	2	0.09	1.111	12.28	6.92	#	H	UNL
214	5	2	0.09	-0.1	13.489	7.323	#	H	UNL
215	5	1	-0.18	2.961	13.944	5.696	#	C	UNL
216	5	2	0.09	0.86	14.137	5.227	#	H	UNL
217	5	2	0.09	1.419	15.297	6.423	#	H	UNL
218	5	1	-0.18	3.4	14.81	4.498	#	C	UNL
219	5	2	0.09	3.631	14.131	6.539	#	H	UNL
220	5	2	0.09	3.048	12.887	5.432	#	H	UNL
221	5	1	-0.18	4.851	14.491	4.078	#	C	UNL
222	5	2	0.09	2.73	14.629	3.653	#	H	UNL
223	5	2	0.09	3.321	15.867	4.762	#	H	UNL
224	5	1	-0.18	5.281	15.344	2.866	#	C	UNL
225	5	2	0.09	5.524	14.683	4.917	#	H	UNL
226	5	2	0.09	4.932	13.431	3.825	#	H	UNL
227	5	1	-0.18	6.727	15.016	2.436	#	C	UNL
228	5	2	0.09	4.602	15.157	2.03	#	H	UNL
229	5	2	0.09	5.209	16.403999	3.121	#	H	UNL
230	5	1	-0.18	7.153	15.861	1.217	#	C	UNL
231	5	2	0.09	7.408	15.208	3.269	#	H	UNL
232	5	2	0.09	6.801	13.954	2.186	#	H	UNL
233	5	1	-0.18	8.592	15.531	0.783	#	C	UNL
234	5	2	0.09	6.474	15.673	0.382	#	H	UNL
235	5	2	0.09	7.085	16.924	1.464	#	H	UNL
236	6	1	-0.18	4.907	1.001	7.77	#	C	UNL
237	6	1	-0.18	4.63	2.462	8.169	#	C	UNL
238	6	2	0.09	7.281	17.933001	10.253	#	H	UNL
239	6	2	0.09	7.46	16.409	11.135	#	H	UNL
240	6	2	0.09	8.524	16.771	9.762	#	H	UNL
241	6	2	0.09	4.246	0.691	6.957	#	H	UNL
242	6	2	0	5.942	0.881	7.443	#	H	UNL
243	6	2	0	4.738	0.337	8.621	#	H	UNL
244	6	1	-0.18	4.859	3.421	6.984	#	C	UNL
245	6	2	0.09	3.598	2.549	8.52	#	H	UNL
246	6	2	0.09	5.284	2.738	9	#	H	UNL
247	6	1	-0.18	4.584	4.886	7.386	#	C	UNL
248	6	2	0.09	4.202	3.141	6.156	#	H	UNL
249	6	2	0.09	5.89	3.328	6.633	#	H	UNL
250	6	1	-0.18	4.805	5.842	6.196	#	C	UNL
251	6	2	0.09	3.554	4.979	7.742	#	H	UNL
252	6	2	0.09	5.246	5.167	8.209	#	H	UNL
253	6	1	-0.18	4.536	7.308	6.596	#	C	UNL
254	6	2	0.09	5.834	5.746	5.837	#	H	UNL
255	6	2	0.09	4.141	5.561	5.374	#	H	UNL
256	6	1	-0.18	4.748	8.259	5.396	#	C	UNL
257	6	2	0.09	3.51	7.403	6.961	#	H	UNL
258	6	2	0.09	5.206	7.583	7.414	#	H	UNL
259	6	1	-0.18	4.399	9.729	5.722	#	C	UNL
260	6	2	0.09	5.782	8.194	5.048	#	H	UNL
261	6	2	0.09	4.111	7.931	4.57	#	H	UNL
262	6	1	-0.18	5.394	10.379	6.71	#	C	UNL
263	6	2	0.09	4.408	10.297	4.789	#	H	UNL
264	6	2	0.09	3.384	9.787	6.123	#	H	UNL
265	6	1	-0.18	5.083	11.877	6.906	#	C	UNL
266	6	2	0.09	5.344	9.873	7.678	#	H	UNL
267	6	2	0.09	6.412	10.267	6.329	#	H	UNL
268	6	1	-0.18	6.084	12.535	7.881	#	C	UNL
269	6	2	0.09	5.128	12.388	5.941	#	H	UNL
270	6	2	0.09	4.067	11.992	7.294	#	H	UNL
271	6	1	-0.18	5.783	14.038	8.059	#	C	UNL
272	6	2	0.09	6.031	12.034	8.85	#	H	UNL
273	6	2	0.09	7.099	12.41	7.498	#	H	UNL
274	6	1	-0.18	6.791	14.7	9.022	#	C	UNL
275	6	2	0.09	5.827	14.536	7.087	#	H	UNL
276	6	2	0.09	4.77	14.164	8.45	#	H	UNL
277	6	1	-0.18	6.497	16.205	9.191	#	C	UNL
278	6	2	0.09	6.744	14.207	9.996	#	H	UNL
279	6	2	0.09	7.805	14.569	8.634	#	H	UNL
280	6	1	-0.18	7.505	16.868999	10.146	#	C	UNL
281	6	2	0.09	6.543	16.702	8.219	#	H	UNL
282	6	2	0.09	5.486	16.341	9.584	#	H	UNL
283	7	1	-0.18	12.768	18.819	19.469	#	C	UNL
284	7	1	-0.18	12.066	18.694	18.105	#	C	UNL
285	7	2	0.09	10.485	17.391001	2.403	#	H	UNL
286	7	2	0.09	10.593	18.650999	3.642	#	H	UNL
287	7	2	0.09	12.025	17.691	3.224	#	H	UNL
288	7	2	0.09	12.57	17.938999	20.087	#	H	UNL
289	7	2	0	13.848	18.917	19.339001	#	H	UNL
290	7	2	0	12.405	19.701	20.002001	#	H	UNL
291	7	1	-0.18	12.558	17.452999	17.330999	#	C	UNL
292	7	2	0.09	10.986	18.625999	18.261	#	H	UNL
293	7	2	0.09	12.258	19.596001	17.518	#	H	UNL
294	7	1	-0.18	11.857	17.330999	15.962	#	C	UNL
295	7	2	0.09	12.364	16.554001	17.922001	#	H	UNL
296	7	2	0.09	13.639	17.523001	17.181	#	H	UNL
297	7	1	-0.18	12.344	16.084999	15.195	#	C	UNL
298	7	2	0.09	10.775	17.268	16.111	#	H	UNL
299	7	2	0.09	12.057	18.226999	15.369	#	H	UNL
300	7	1	-0.18	11.648	15.962	13.823	#	C	UNL
301	7	2	0.09	13.426	16.146999	15.049	#	H	UNL
302	7	2	0.09	12.141	15.189	15.788	#	H	UNL
303	7	1	-0.18	12.132	14.705	13.065	#	C	UNL
304	7	2	0.09	10.566	15.907	13.967	#	H	UNL
305	7	2	0.09	11.859	16.858	13.235	#	H	UNL
306	7	1	-0.18	11.394	14.487	11.725	#	C	UNL
307	7	2	0.09	13.208	14.77	12.886	#	H	UNL
308	7	2	0.09	11.965	13.828	13.695	#	H	UNL
309	7	1	-0.18	11.751	15.55	10.66	#	C	UNL
310	7	2	0.09	11.666	13.501	11.341	#	H	UNL
311	7	2	0.09	10.314	14.478	11.895	#	H	UNL
312	7	1	-0.18	11.094	15.221	9.304	#	C	UNL
313	7	2	0.09	11.417	16.537001	10.991	#	H	UNL
314	7	2	0.09	12.837	15.593	10.537	#	H	UNL
315	7	1	-0.18	11.46	16.271999	8.234	#	C	UNL
316	7	2	0.09	11.422	14.233	8.97	#	H	UNL
317	7	2	0.09	10.008	15.185	9.424	#	H	UNL
318	7	1	-0.18	10.818	15.929	6.874	#	C	UNL
319	7	2	0.09	11.121	17.257999	8.56	#	H	UNL
320	7	2	0.09	12.546	16.315001	8.124	#	H	UNL
321	7	1	-0.18	11.195	16.971001	5.799	#	C	UNL
322	7	2	0.09	11.152	14.938	6.553	#	H	UNL
323	7	2	0.09	9.731	15.894	6.981	#	H	UNL
324	7	1	-0.18	10.562	16.621	4.435	#	C	UNL
325	7	2	0.09	10.857	17.959999	6.115	#	H	UNL
326	7	2	0.09	12.283	17.01	5.695	#	H	UNL
327	7	1	-0.18	10.942	17.655001	3.36	#	C	UNL
328	7	2	0.09	10.897	15.631	4.116	#	H	UNL
329	7	2	0.09	9.474	16.586	4.532	#	H	UNL
330	8	1	-0.18	16.687	5.087	9.69	#	C	UNL
331	8	1	-0.18	15.394	5.916	9.793	#	C	UNL
332	8	2	0.09	-0.027	9.367	8.781	#	H	UNL
333	8	2	0.09	1.436	9.452	7.788	#	H	UNL
334	8	2	0.09	0.7	7.879	8.154	#	H	UNL
335	8	2	0.09	17.120001	4.922	10.68	#	H	UNL
336	8	2	0	16.486	4.116	9.231	#	H	UNL
337	8	2	0	17.424999	5.61	9.076	#	H	UNL
338	8	1	-0.18	14.336	5.201	10.657	#	C	UNL
339	8	2	0.09	15.627	6.892	10.227	#	H	UNL
340	8	2	0.09	14.997	6.089	8.789	#	H	UNL
341	8	1	-0.18	13.038	6.032	10.757	#	C	UNL
342	8	2	0.09	14.737	5.032	11.66	#	H	UNL
343	8	2	0.09	14.109	4.224	10.222	#	H	UNL
344	8	1	-0.18	11.985	5.319	11.629	#	C	UNL
345	8	2	0.09	13.265	7.012	11.186	#	H	UNL
346	8	2	0.09	12.633	6.196	9.755	#	H	UNL
347	8	1	-0.18	10.684	6.144	11.727	#	C	UNL
348	8	2	0.09	11.761	4.337	11.201	#	H	UNL
349	8	2	0.09	12.391	5.158	12.632	#	H	UNL
350	8	1	-0.18	9.638	5.43	12.612	#	C	UNL
351	8	2	0.09	10.909	7.128	12.148	#	H	UNL
352	8	2	0.09	10.283	6.297	10.723	#	H	UNL
353	8	1	-0.18	8.353	6.261	12.817	#	C	UNL
354	8	2	0.09	9.384	4.459	12.177	#	H	UNL
355	8	2	0.09	10.081	5.235	13.592	#	H	UNL
356	8	1	-0.18	7.51	6.397	11.528	#	C	UNL
357	8	2	0.09	7.747	5.771	13.583	#	H	UNL
358	8	2	0.09	8.611	7.253	13.199	#	H	UNL
359	8	1	-0.18	6.178	7.123	11.808	#	C	UNL
360	8	2	0.09	8.07	6.954	10.773	#	H	UNL
361	8	2	0.09	7.304	5.404	11.121	#	H	UNL
362	8	1	-0.18	5.327	7.247	10.527	#	C	UNL
363	8	2	0.09	5.615	6.571	12.566	#	H	UNL
364	8	2	0.09	6.382	8.119	12.209	#	H	UNL
365	8	1	-0.18	3.986	7.954	10.814	#	C	UNL
366	8	2	0.09	5.882	7.809	9.773	#	H	UNL
367	8	2	0.09	5.133	6.251	10.121	#	H	UNL
368	8	1	-0.18	3.127	8.066	9.537	#	C	UNL
369	8	2	0.09	3.435	7.396	11.575	#	H	UNL
370	8	2	0.09	4.179	8.954	11.212	#	H	UNL
371	8	1	-0.18	1.782	8.764	9.827	#	C	UNL
372	8	2	0.09	3.674	8.63	8.777	#	H	UNL
373	8	2	0.09	2.939	7.067	9.135	#	H	UNL
374	8	1	-0.18	0.92	8.871	8.556	#	C	UNL
375	8	2	0.09	1.231	8.204	10.587	#	H	UNL
376	8	2	0.09	1.964	9.766	10.224	#	H	UNL
377	9	1	-0.18	12.01	12.521	18.249001	#	C	UNL
378	9	1	-0.18	11.109	11.748	17.268	#	C	UNL
379	9	2	0.09	0.632	1.008	12.207	#	H	UNL
380	9	2	0.09	2.38	1.178	12.431	#	H	UNL
381	9	2	0.09	1.313	1.036	13.842	#	H	UNL
382	9	2	0.09	11.69	13.564	18.327	#	H	UNL
383	9	2	0	11.972	12.07	19.243999	#	H	UNL
384	9	2	0	13.046	12.505	17.905001	#	H	UNL
385	9	1	-0.18	9.638	11.758	17.73	#	C	UNL
386	9	2	0.09	11.187	12.201	16.275999	#	H	UNL
387	9	2	0.09	11.465	10.718	17.188999	#	H	UNL
388	9	1	-0.18	8.736	10.98	16.747999	#	C	UNL
389	9	2	0.09	9.286	12.79	17.806999	#	H	UNL
390	9	2	0.09	9.565	11.308	18.724001	#	H	UNL
391	9	1	-0.18	7.264	10.999	17.207001	#	C	UNL
392	9	2	0.09	8.814	11.425	15.752	#	H	UNL
393	9	2	0.09	9.084	9.946	16.674999	#	H	UNL
394	9	1	-0.18	6.36	10.217	16.23	#	C	UNL
395	9	2	0.09	7.188	10.557	18.205	#	H	UNL
396	9	2	0.09	6.917	12.033	17.275999	#	H	UNL
397	9	1	-0.18	4.886	10.25	16.690001	#	C	UNL
398	9	2	0.09	6.442	10.654	15.231	#	H	UNL
399	9	2	0.09	6.711	9.184	16.169001	#	H	UNL
400	9	1	-0.18	3.927	9.561	15.693	#	C	UNL
401	9	2	0.09	4.792	9.783	17.674	#	H	UNL
402	9	2	0.09	4.574	11.292	16.799999	#	H	UNL
403	9	1	-0.18	4.117	8.027	15.637	#	C	UNL
404	9	2	0.09	2.901	9.776	16.000999	#	H	UNL
405	9	2	0.09	4.06	9.989	14.696	#	H	UNL
406	9	1	-0.18	3.058	7.369	14.729	#	C	UNL
407	9	2	0.09	5.113	7.788	15.257	#	H	UNL
408	9	2	0.09	4.039	7.613	16.645	#	H	UNL
409	9	1	-0.18	3.234	5.836	14.682	#	C	UNL
410	9	2	0.09	2.059	7.608	15.102	#	H	UNL
411	9	2	0.09	3.139	7.777	13.718	#	H	UNL
412	9	1	-0.18	2.161	5.179	13.79	#	C	UNL
413	9	2	0.09	4.227	5.595	14.297	#	H	UNL
414	9	2	0.09	3.164	5.431	15.694	#	H	UNL
415	9	1	-0.18	2.326	3.644	13.753	#	C	UNL
416	9	2	0.09	1.167	5.428	14.172	#	H	UNL
417	9	2	0.09	2.235	5.577	12.775	#	H	UNL
418	9	1	-0.18	1.246	2.986	12.87	#	C	UNL
419	9	2	0.09	3.317	3.394	13.366	#	H	UNL
420	9	2	0.09	2.258	3.246	14.769	#	H	UNL
421	9	1	-0.18	1.405	1.455	12.837	#	C	UNL
422	9	2	0.09	0.253	3.236	13.253	#	H	UNL
423	9	2	0.09	1.313	3.377	11.851	#	H	UNL
424	10	1	-0.18	11.405	7.796	4.778	#	C	UNL
425	10	1	-0.18	11.476	8.789	5.953	#	C	UNL
426	10	2	0.09	6.667	19.816999	16.247999	#	H	UNL
427	10	2	0.09	7.431	19.709	14.655	#	H	UNL
428	10	2	0.09	5.719	19.285	14.85	#	H	UNL
429	10	2	0.09	11.523	6.769	5.133	#	H	UNL
430	10	2	0	10.445	7.878	4.263	#	H	UNL
431	10	2	0	12.199	8.003	4.058	#	H	UNL
432	10	1	-0.18	10.365	8.516	6.987	#	C	UNL
433	10	2	0.09	12.454	8.707	6.433	#	H	UNL
434	10	2	0.09	11.381	9.808	5.569	#	H	UNL
435	10	1	-0.18	10.435	9.514	8.162	#	C	UNL
436	10	2	0.09	10.464	7.496	7.368	#	H	UNL
437	10	2	0.09	9.388	8.593	6.502	#	H	UNL
438	10	1	-0.18	9.328	9.232	9.2	#	C	UNL
439	10	2	0.09	11.414	9.441	8.644	#	H	UNL
440	10	2	0.09	10.329	10.533	7.781	#	H	UNL
441	10	1	-0.18	9.392	10.232	10.374	#	C	UNL
442	10	2	0.09	8.35	9.302	8.716	#	H	UNL
443	10	2	0.09	9.437	8.214	9.582	#	H	UNL
444	10	1	-0.18	8.289	9.937	11.415	#	C	UNL
445	10	2	0.09	10.373	10.168	10.853	#	H	UNL
446	10	2	0.09	9.279	11.246	9.986	#	H	UNL
447	10	1	-0.18	8.37	10.853	12.657	#	C	UNL
448	10	2	0.09	7.304	10.034	10.951	#	H	UNL
449	10	2	0.09	8.386	8.9	11.747	#	H	UNL
450	10	1	-0.18	8.008	12.323	12.346	#	C	UNL
451	10	2	0.09	7.676	10.471	13.409	#	H	UNL
452	10	2	0.09	9.373	10.8	13.09	#	H	UNL
453	10	1	-0.18	7.978	13.172	13.634	#	C	UNL
454	10	2	0.09	8.737	12.75	11.653	#	H	UNL
455	10	2	0.09	7.028	12.363	11.863	#	H	UNL
456	10	1	-0.18	7.601	14.638	13.331	#	C	UNL
457	10	2	0.09	7.252	12.748	14.333	#	H	UNL
458	10	2	0.09	8.958	13.14	14.116	#	H	UNL
459	10	1	-0.18	7.551	15.48	14.623	#	C	UNL
460	10	2	0.09	8.332	15.068	12.642	#	H	UNL
461	10	2	0.09	6.625	14.668	12.839	#	H	UNL
462	10	1	-0.18	7.161	16.943001	14.323	#	C	UNL
463	10	2	0.09	6.825	15.044	15.314	#	H	UNL
464	10	2	0.09	8.529	15.457	15.111	#	H	UNL
465	10	1	-0.18	7.1	17.782	15.617	#	C	UNL
466	10	2	0.09	7.889	17.382	13.637	#	H	UNL
467	10	2	0.09	6.185	16.966	13.829	#	H	UNL
468	10	1	-0.18	6.704	19.24	15.321	#	C	UNL
469	10	2	0.09	6.373	17.344999	16.306	#	H	UNL
470	10	2	0.09	8.075	17.767	16.112	#	H	UNL

 Bonds

1 1 1 2
2 2 1 6
3 2 1 7
4 2 1 8
5 1 2 9
6 2 2 10
7 2 2 11
8 2 3 45
9 2 4 45
10 2 5 45
11 1 9 12
12 2 9 13
13 2 9 14
14 1 12 15
15 2 12 16
16 2 12 17
17 1 15 18
18 2 15 19
19 2 15 20
20 1 18 21
21 2 18 22
22 2 18 23
23 1 21 24
24 2 21 25
25 2 21 26
26 1 24 27
27 2 24 28
28 2 24 29
29 1 27 30
30 2 27 31
31 2 27 32
32 1 30 33
33 2 30 34
34 2 30 35
35 1 33 36
36 2 33 37
37 2 33 38
38 1 36 39
39 2 36 40
40 2 36 41
41 1 39 42
42 2 39 43
43 2 39 44
44 1 42 45
45 2 42 46
46 2 42 47
47 1 48 49
48 2 48 53
49 2 48 54
50 2 48 55
51 1 49 56
52 2 49 57
53 2 49 58
54 2 50 92
55 2 51 92
56 2 52 92
57 1 56 59
58 2 56 60
59 2 56 61
60 1 59 62
61 2 59 63
62 2 59 64
63 1 62 65
64 2 62 66
65 2 62 67
66 1 65 68
67 2 65 69
68 2 65 70
69 1 68 71
70 2 68 72
71 2 68 73
72 1 71 74
73 2 71 75
74 2 71 76
75 1 74 77
76 2 74 78
77 2 74 79
78 1 77 80
79 2 77 81
80 2 77 82
81 1 80 83
82 2 80 84
83 2 80 85
84 1 83 86
85 2 83 87
86 2 83 88
87 1 86 89
88 2 86 90
89 2 86 91
90 1 89 92
91 2 89 93
92 2 89 94
93 1 95 96
94 2 95 100
95 2 95 101
96 2 95 102
97 1 96 103
98 2 96 104
99 2 96 105
100 2 97 139
101 2 98 139
102 2 99 139
103 1 103 106
104 2 103 107
105 2 103 108
106 1 106 109
107 2 106 110
108 2 106 111
109 1 109 112
110 2 109 113
111 2 109 114
112 1 112 115
113 2 112 116
114 2 112 117
115 1 115 118
116 2 115 119
117 2 115 120
118 1 118 121
119 2 118 122
120 2 118 123
121 1 121 124
122 2 121 125
123 2 121 126
124 1 124 127
125 2 124 128
126 2 124 129
127 1 127 130
128 2 127 131
129 2 127 132
130 1 130 133
131 2 130 134
132 2 130 135
133 1 133 136
134 2 133 137
135 2 133 138
136 1 136 139
137 2 136 140
138 2 136 141
139 1 142 143
140 2 142 147
141 2 142 148
142 2 142 149
143 1 143 150
144 2 143 151
145 2 143 152
146 2 144 186
147 2 145 186
148 2 146 186
149 1 150 153
150 2 150 154
151 2 150 155
152 1 153 156
153 2 153 157
154 2 153 158
155 1 156 159
156 2 156 160
157 2 156 161
158 1 159 162
159 2 159 163
160 2 159 164
161 1 162 165
162 2 162 166
163 2 162 167
164 1 165 168
165 2 165 169
166 2 165 170
167 1 168 171
168 2 168 172
169 2 168 173
170 1 171 174
171 2 171 175
172 2 171 176
173 1 174 177
174 2 174 178
175 2 174 179
176 1 177 180
177 2 177 181
178 2 177 182
179 1 180 183
180 2 180 184
181 2 180 185
182 1 183 186
183 2 183 187
184 2 183 188
185 1 189 190
186 2 189 194
187 2 189 195
188 2 189 196
189 1 190 197
190 2 190 198
191 2 190 199
192 2 191 233
193 2 192 233
194 2 193 233
195 1 197 200
196 2 197 201
197 2 197 202
198 1 200 203
199 2 200 204
200 2 200 205
201 1 203 206
202 2 203 207
203 2 203 208
204 1 206 209
205 2 206 210
206 2 206 211
207 1 209 212
208 2 209 213
209 2 209 214
210 1 212 215
211 2 212 216
212 2 212 217
213 1 215 218
214 2 215 219
215 2 215 220
216 1 218 221
217 2 218 222
218 2 218 223
219 1 221 224
220 2 221 225
221 2 221 226
222 1 224 227
223 2 224 228
224 2 224 229
225 1 227 230
226 2 227 231
227 2 227 232
228 1 230 233
229 2 230 234
230 2 230 235
231 1 236 237
232 2 236 241
233 2 236 242
234 2 236 243
235 1 237 244
236 2 237 245
237 2 237 246
238 2 238 280
239 2 239 280
240 2 240 280
241 1 244 247
242 2 244 248
243 2 244 249
244 1 247 250
245 2 247 251
246 2 247 252
247 1 250 253
248 2 250 254
249 2 250 255
250 1 253 256
251 2 253 257
252 2 253 258
253 1 256 259
254 2 256 260
255 2 256 261
256 1 259 262
257 2 259 263
258 2 259 264
259 1 262 265
260 2 262 266
261 2 262 267
262 1 265 268
263 2 265 269
264 2 265 270
265 1 268 271
266 2 268 272
267 2 268 273
268 1 271 274
269 2 271 275
270 2 271 276
271 1 274 277
272 2 274 278
273 2 274 279
274 1 277 280
275 2 277 281
276 2 277 282
277 1 283 284
278 2 283 288
279 2 283 289
280 2 283 290
281 1 284 291
282 2 284 292
283 2 284 293
284 2 285 327
285 2 286 327
286 2 287 327
287 1 291 294
288 2 291 295
289 2 291 296
290 1 294 297
291 2 294 298
292 2 294 299
293 1 297 300
294 2 297 301
295 2 297 302
296 1 300 303
297 2 300 304
298 2 300 305
299 1 303 306
300 2 303 307
301 2 303 308
302 1 306 309
303 2 306 310
304 2 306 311
305 1 309 312
306 2 309 313
307 2 309 314
308 1 312 315
309 2 312 316
310 2 312 317
311 1 315 318
312 2 315 319
313 2 315 320
314 1 318 321
315 2 318 322
316 2 318 323
317 1 321 324
318 2 321 325
319 2 321 326
320 1 324 327
321 2 324 328
322 2 324 329
323 1 330 331
324 2 330 335
325 2 330 336
326 2 330 337
327 1 331 338
328 2 331 339
329 2 331 340
330 2 332 374
331 2 333 374
332 2 334 374
333 1 338 341
334 2 338 342
335 2 338 343
336 1 341 344
337 2 341 345
338 2 341 346
339 1 344 347
340 2 344 348
341 2 344 349
342 1 347 350
343 2 347 351
344 2 347 352
345 1 350 353
346 2 350 354
347 2 350 355
348 1 353 356
349 2 353 357
350 2 353 358
351 1 356 359
352 2 356 360
353 2 356 361
354 1 359 362
355 2 359 363
356 2 359 364
357 1 362 365
358 2 362 366
359 2 362 367
360 1 365 368
361 2 365 369
362 2 365 370
363 1 368 371
364 2 368 372
365 2 368 373
366 1 371 374
367 2 371 375
368 2 371 376
369 1 377 378
370 2 377 382
371 2 377 383
372 2 377 384
373 1 378 385
374 2 378 386
375 2 378 387
376 2 379 421
377 2 380 421
378 2 381 421
379 1 385 388
380 2 385 389
381 2 385 390
382 1 388 391
383 2 388 392
384 2 388 393
385 1 391 394
386 2 391 395
387 2 391 396
388 1 394 397
389 2 394 398
390 2 394 399
391 1 397 400
392 2 397 401
393 2 397 402
394 1 400 403
395 2 400 404
396 2 400 405
397 1 403 406
398 2 403 407
399 2 403 408
400 1 406 409
401 2 406 410
402 2 406 411
403 1 409 412
404 2 409 413
405 2 409 414
406 1 412 415
407 2 412 416
408 2 412 417
409 1 415 418
410 2 415 419
411 2 415 420
412 1 418 421
413 2 418 422
414 2 418 423
415 1 424 425
416 2 424 429
417 2 424 430
418 2 424 431
419 1 425 432
420 2 425 433
421 2 425 434
422 2 426 468
423 2 427 468
424 2 428 468
425 1 432 435
426 2 432 436
427 2 432 437
428 1 435 438
429 2 435 439
430 2 435 440
431 1 438 441
432 2 438 442
433 2 438 443
434 1 441 444
435 2 441 445
436 2 441 446
437 1 444 447
438 2 444 448
439 2 444 449
440 1 447 450
441 2 447 451
442 2 447 452
443 1 450 453
444 2 450 454
445 2 450 455
446 1 453 456
447 2 453 457
448 2 453 458
449 1 456 459
450 2 456 460
451 2 456 461
452 1 459 462
453 2 459 463
454 2 459 464
455 1 462 465
456 2 462 466
457 2 462 467
458 1 465 468
459 2 465 469
460 2 465 470

 Angles

1 2 2 1 6
2 2 2 1 7
3 2 2 1 8
4 3 6 1 7
5 3 6 1 8
6 3 7 1 8
7 1 1 2 9
8 2 1 2 10
9 2 1 2 11
10 2 9 2 10
11 2 9 2 11
12 3 10 2 11
13 1 2 9 12
14 2 2 9 13
15 2 2 9 14
16 2 12 9 13
17 2 12 9 14
18 3 13 9 14
19 1 9 12 15
20 2 9 12 16
21 2 9 12 17
22 2 15 12 16
23 2 15 12 17
24 3 16 12 17
25 1 12 15 18
26 2 12 15 19
27 2 12 15 20
28 2 18 15 19
29 2 18 15 20
30 3 19 15 20
31 1 15 18 21
32 2 15 18 22
33 2 15 18 23
34 2 21 18 22
35 2 21 18 23
36 3 22 18 23
37 1 18 21 24
38 2 18 21 25
39 2 18 21 26
40 2 24 21 25
41 2 24 21 26
42 3 25 21 26
43 1 21 24 27
44 2 21 24 28
45 2 21 24 29
46 2 27 24 28
47 2 27 24 29
48 3 28 24 29
49 1 24 27 30
50 2 24 27 31
51 2 24 27 32
52 2 30 27 31
53 2 30 27 32
54 3 31 27 32
55 1 27 30 33
56 2 27 30 34
57 2 27 30 35
58 2 33 30 34
59 2 33 30 35
60 3 34 30 35
61 1 30 33 36
62 2 30 33 37
63 2 30 33 38
64 2 36 33 37
65 2 36 33 38
66 3 37 33 38
67 1 33 36 39
68 2 33 36 40
69 2 33 36 41
70 2 39 36 40
71 2 39 36 41
72 3 40 36 41
73 1 36 39 42
74 2 36 39 43
75 2 36 39 44
76 2 42 39 43
77 2 42 39 44
78 3 43 39 44
79 1 39 42 45
80 2 39 42 46
81 2 39 42 47
82 2 45 42 46
83 2 45 42 47
84 3 46 42 47
85 3 3 45 4
86 3 3 45 5
87 2 3 45 42
88 3 4 45 5
89 2 4 45 42
90 2 5 45 42
91 2 49 48 53
92 2 49 48 54
93 2 49 48 55
94 3 53 48 54
95 3 53 48 55
96 3 54 48 55
97 1 48 49 56
98 2 48 49 57
99 2 48 49 58
100 2 56 49 57
101 2 56 49 58
102 3 57 49 58
103 1 49 56 59
104 2 49 56 60
105 2 49 56 61
106 2 59 56 60
107 2 59 56 61
108 3 60 56 61
109 1 56 59 62
110 2 56 59 63
111 2 56 59 64
112 2 62 59 63
113 2 62 59 64
114 3 63 59 64
115 1 59 62 65
116 2 59 62 66
117 2 59 62 67
118 2 65 62 66
119 2 65 62 67
120 3 66 62 67
121 1 62 65 68
122 2 62 65 69
123 2 62 65 70
124 2 68 65 69
125 2 68 65 70
126 3 69 65 70
127 1 65 68 71
128 2 65 68 72
129 2 65 68 73
130 2 71 68 72
131 2 71 68 73
132 3 72 68 73
133 1 68 71 74
134 2 68 71 75
135 2 68 71 76
136 2 74 71 75
137 2 74 71 76
138 3 75 71 76
139 1 71 74 77
140 2 71 74 78
141 2 71 74 79
142 2 77 74 78
143 2 77 74 79
144 3 78 74 79
145 1 74 77 80
146 2 74 77 81
147 2 74 77 82
148 2 80 77 81
149 2 80 77 82
150 3 81 77 82
151 1 77 80 83
152 2 77 80 84
153 2 77 80 85
154 2 83 80 84
155 2 83 80 85
156 3 84 80 85
157 1 80 83 86
158 2 80 83 87
159 2 80 83 88
160 2 86 83 87
161 2 86 83 88
162 3 87 83 88
163 1 83 86 89
164 2 83 86 90
165 2 83 86 91
166 2 89 86 90
167 2 89 86 91
168 3 90 86 91
169 1 86 89 92
170 2 86 89 93
171 2 86 89 94
172 2 92 89 93
173 2 92 89 94
174 3 93 89 94
175 3 50 92 51
176 3 50 92 52
177 2 50 92 89
178 3 51 92 52
179 2 51 92 89
180 2 52 92 89
181 2 96 95 100
182 2 96 95 101
183 2 96 95 102
184 3 100 95 101
185 3 100 95 102
186 3 101 95 102
187 1 95 96 103
188 2 95 96 104
189 2 95 96 105
190 2 103 96 104
191 2 103 96 105
192 3 104 96 105
193 1 96 103 106
194 2 96 103 107
195 2 96 103 108
196 2 106 103 107
197 2 106 103 108